[
  {
    "id": "si",
    "formula": "Si",
    "name": "Si (Traditional Semiconductor)",
    "category": "Traditional Semiconductor",
    "material_id": "mp-1120447",
    "band_gap_ev": 0.0,
    "density_g_cm3": 2.288019789495501,
    "formation_energy_ev_atom": 0.372509667499999,
    "is_stable": false,
    "chip_cost_eur": 0.55,
    "energy_consumption_w": 7.0,
    "carbon_footprint_kg": 0.15,
    "trl": 9,
    "cost_relative_to_si": 1.0,
    "notes": "28nm node average. Source: IC Insights Wafer Fab Report 2024. Carbon: GlobalFoundries 2024."
  },
  {
    "id": "ge",
    "formula": "Ge",
    "name": "Ge (Traditional Semiconductor)",
    "category": "Traditional Semiconductor",
    "material_id": "mp-78",
    "band_gap_ev": 0.0,
    "density_g_cm3": 6.511603461545447,
    "formation_energy_ev_atom": 0.229719134999999,
    "is_stable": false,
    "chip_cost_eur": 1.8,
    "energy_consumption_w": 7.0,
    "carbon_footprint_kg": 0.18,
    "trl": 8,
    "cost_relative_to_si": 3.27,
    "notes": "Photonics applications. Source: Yole Ge Photonics 2024. Carbon: Materials Project LCA."
  },
  {
    "id": "c",
    "formula": "C",
    "name": "C (Ultra-wide Bandgap)",
    "category": "Ultra-wide Bandgap",
    "material_id": "mp-1197903",
    "band_gap_ev": 0.0797,
    "density_g_cm3": 1.030996672490697,
    "formation_energy_ev_atom": 1.4104997176249991,
    "is_stable": false,
    "chip_cost_eur": 100.0,
    "energy_consumption_w": 7.0,
    "carbon_footprint_kg": 3.0,
    "trl": 4,
    "cost_relative_to_si": 181.82,
    "notes": "Research stage CVD diamond. Source: Element Six 2024. Very high energy CVD growth."
  },
  {
    "id": "sic",
    "formula": "SiC",
    "name": "SiC (Wide-bandgap Semiconductor)",
    "category": "Wide-bandgap Semiconductor",
    "material_id": "mp-568619",
    "band_gap_ev": 1.750999999999999,
    "density_g_cm3": 3.227469634095106,
    "formation_energy_ev_atom": -0.304928413499999,
    "is_stable": false,
    "chip_cost_eur": 0.85,
    "energy_consumption_w": 5.0,
    "carbon_footprint_kg": 0.10,
    "trl": 9,
    "cost_relative_to_si": 1.55,
    "notes": "1200V power MOSFET. Source: Yole SiC Power 2024, verified Digikey. Carbon: IEEE TPEL 2023."
  },
  {
    "id": "gaas",
    "formula": "GaAs",
    "name": "GaAs (III-V Compound)",
    "category": "III-V Compound",
    "material_id": "mp-1244899",
    "band_gap_ev": 0.007699999999999,
    "density_g_cm3": 4.982356324436611,
    "formation_energy_ev_atom": -0.03577590605,
    "is_stable": false,
    "chip_cost_eur": 0.12,
    "energy_consumption_w": 7.0,
    "carbon_footprint_kg": 0.10,
    "trl": 9,
    "cost_relative_to_si": 0.22,
    "notes": "RF amplifier (6mm² die). Source: IC Insights GaAs 2024. Carbon: UC Berkeley LCA."
  },
  {
    "id": "gap",
    "formula": "GaP",
    "name": "GaP (III-V Compound)",
    "category": "III-V Compound",
    "material_id": "mp-971631",
    "band_gap_ev": 0.0,
    "density_g_cm3": 4.839357879830287,
    "formation_energy_ev_atom": 0.064744041011902,
    "is_stable": false,
    "chip_cost_eur": 1.4,
    "energy_consumption_w": 7.0,
    "carbon_footprint_kg": 0.347,
    "trl": 8,
    "cost_relative_to_si": 2.8
  },
  {
    "id": "gasb",
    "formula": "GaSb",
    "name": "GaSb (III-V Compound)",
    "category": "III-V Compound",
    "material_id": "mp-1244877",
    "band_gap_ev": 0.0,
    "density_g_cm3": 5.596654613845908,
    "formation_energy_ev_atom": 0.1046636871,
    "is_stable": false,
    "chip_cost_eur": 1.6,
    "energy_consumption_w": 7.0,
    "carbon_footprint_kg": 0.385,
    "trl": 7,
    "cost_relative_to_si": 3.2
  },
  {
    "id": "inp",
    "formula": "InP",
    "name": "InP (III-V Compound)",
    "category": "III-V Compound",
    "material_id": "mp-966800",
    "band_gap_ev": 0.527999999999999,
    "density_g_cm3": 4.704869604456656,
    "formation_energy_ev_atom": -0.354339883988092,
    "is_stable": false,
    "chip_cost_eur": 0.50,
    "energy_consumption_w": 7.0,
    "carbon_footprint_kg": 0.08,
    "trl": 8,
    "cost_relative_to_si": 0.91,
    "notes": "Laser diode (1mm² die). Source: Yole InP Components 2023. Carbon: Carbon Trust 2023."
  },
  {
    "id": "inas",
    "formula": "InAs",
    "name": "InAs (III-V Compound)",
    "category": "III-V Compound",
    "material_id": "mp-1007652",
    "band_gap_ev": 0.0,
    "density_g_cm3": 5.521932077387896,
    "formation_energy_ev_atom": -0.380814741249999,
    "is_stable": false,
    "chip_cost_eur": 2.25,
    "energy_consumption_w": 7.0,
    "carbon_footprint_kg": 0.381,
    "trl": 7,
    "cost_relative_to_si": 4.5
  },
  {
    "id": "insb",
    "formula": "InSb",
    "name": "InSb (III-V Compound)",
    "category": "III-V Compound",
    "material_id": "mp-1223637",
    "band_gap_ev": 0.0,
    "density_g_cm3": 6.921276258509032,
    "formation_energy_ev_atom": -0.122108374999999,
    "is_stable": false,
    "chip_cost_eur": 2.4,
    "energy_consumption_w": 7.0,
    "carbon_footprint_kg": 0.451,
    "trl": 6,
    "cost_relative_to_si": 4.8
  },
  {
    "id": "alp",
    "formula": "AlP",
    "name": "AlP (III-V Compound)",
    "category": "III-V Compound",
    "material_id": "mp-997569",
    "band_gap_ev": 2.3944,
    "density_g_cm3": 0.528386498678556,
    "formation_energy_ev_atom": -0.068993173988094,
    "is_stable": false,
    "chip_cost_eur": 1.5,
    "energy_consumption_w": 3.5,
    "carbon_footprint_kg": 0.079,
    "trl": 6,
    "cost_relative_to_si": 3.0
  },
  {
    "id": "alas",
    "formula": "AlAs",
    "name": "AlAs (III-V Compound)",
    "category": "III-V Compound",
    "material_id": "mp-988939",
    "band_gap_ev": 0.0,
    "density_g_cm3": 4.263957747543094,
    "formation_energy_ev_atom": -0.00177203125,
    "is_stable": false,
    "chip_cost_eur": 1.75,
    "energy_consumption_w": 7.0,
    "carbon_footprint_kg": 0.318,
    "trl": 7,
    "cost_relative_to_si": 3.5
  },
  {
    "id": "alsb",
    "formula": "AlSb",
    "name": "AlSb (III-V Compound)",
    "category": "III-V Compound",
    "material_id": "mp-1228806",
    "band_gap_ev": 0.0,
    "density_g_cm3": 5.225053136605902,
    "formation_energy_ev_atom": -0.014394015,
    "is_stable": false,
    "chip_cost_eur": 2.0,
    "energy_consumption_w": 7.0,
    "carbon_footprint_kg": 0.366,
    "trl": 6,
    "cost_relative_to_si": 4.0
  },
  {
    "id": "gan",
    "formula": "GaN",
    "name": "GaN (III-Nitride Wide-bandgap)",
    "category": "III-Nitride Wide-bandgap",
    "material_id": "mp-1244866",
    "band_gap_ev": 0.0,
    "density_g_cm3": 4.502929429161724,
    "formation_energy_ev_atom": -0.011633118375,
    "is_stable": false,
    "chip_cost_eur": 0.15,
    "energy_consumption_w": 7.0,
    "carbon_footprint_kg": 0.06,
    "trl": 8,
    "cost_relative_to_si": 0.27,
    "notes": "GaN-on-Si power device (15mm² die). Source: Yole GaN Power 2024. Carbon: MIT 2024."
  },
  {
    "id": "aln",
    "formula": "AlN",
    "name": "AlN (III-Nitride Wide-bandgap)",
    "category": "III-Nitride Wide-bandgap",
    "material_id": "mp-661",
    "band_gap_ev": 4.0467,
    "density_g_cm3": 3.200889713142437,
    "formation_energy_ev_atom": -1.6796721718749992,
    "is_stable": true,
    "chip_cost_eur": 18.0,
    "energy_consumption_w": 2.0,
    "carbon_footprint_kg": 1.0,
    "trl": 6,
    "cost_relative_to_si": 32.73,
    "notes": "UV LED (10mm² die). Source: Kyocera advanced ceramics pricing. High-temp process."
  },
  {
    "id": "inn",
    "formula": "InN",
    "name": "InN (III-Nitride Wide-bandgap)",
    "category": "III-Nitride Wide-bandgap",
    "material_id": "mp-22205",
    "band_gap_ev": 0.0,
    "density_g_cm3": 6.835816933007001,
    "formation_energy_ev_atom": -0.117700666874998,
    "is_stable": true,
    "chip_cost_eur": 1.5,
    "energy_consumption_w": 7.0,
    "carbon_footprint_kg": 0.447,
    "trl": 6,
    "cost_relative_to_si": 3.0
  },
  {
    "id": "zno",
    "formula": "ZnO",
    "name": "ZnO (II-VI Compound)",
    "category": "II-VI Compound",
    "material_id": "mp-1245015",
    "band_gap_ev": 1.2763,
    "density_g_cm3": 4.835097081422673,
    "formation_energy_ev_atom": -1.541949366625,
    "is_stable": false,
    "chip_cost_eur": 0.6,
    "energy_consumption_w": 5.0,
    "carbon_footprint_kg": 0.317,
    "trl": 7,
    "cost_relative_to_si": 1.2
  },
  {
    "id": "zns",
    "formula": "ZnS",
    "name": "ZnS (II-VI Compound)",
    "category": "II-VI Compound",
    "material_id": "mp-1244890",
    "band_gap_ev": 0.9376,
    "density_g_cm3": 3.2334152880082963,
    "formation_energy_ev_atom": -0.513779709363392,
    "is_stable": false,
    "chip_cost_eur": 0.75,
    "energy_consumption_w": 7.0,
    "carbon_footprint_kg": 0.267,
    "trl": 7,
    "cost_relative_to_si": 1.5
  },
  {
    "id": "znse",
    "formula": "ZnSe",
    "name": "ZnSe (II-VI Compound)",
    "category": "II-VI Compound",
    "material_id": "mp-569679",
    "band_gap_ev": 1.9671,
    "density_g_cm3": 4.681030279805861,
    "formation_energy_ev_atom": -0.791561253671875,
    "is_stable": false,
    "chip_cost_eur": 1.0,
    "energy_consumption_w": 5.0,
    "carbon_footprint_kg": 0.309,
    "trl": 7,
    "cost_relative_to_si": 2.0
  },
  {
    "id": "znte",
    "formula": "ZnTe",
    "name": "ZnTe (II-VI Compound)",
    "category": "II-VI Compound",
    "material_id": "mp-571195",
    "band_gap_ev": 1.069,
    "density_g_cm3": 5.424327600796479,
    "formation_energy_ev_atom": -0.680473905,
    "is_stable": false,
    "chip_cost_eur": 1.25,
    "energy_consumption_w": 5.0,
    "carbon_footprint_kg": 0.346,
    "trl": 6,
    "cost_relative_to_si": 2.5
  },
  {
    "id": "cds",
    "formula": "CdS",
    "name": "CdS (II-VI Compound)",
    "category": "II-VI Compound",
    "material_id": "mp-1021511",
    "band_gap_ev": 1.5192,
    "density_g_cm3": 2.5826913192676173,
    "formation_energy_ev_atom": -0.524289781406249,
    "is_stable": false,
    "chip_cost_eur": 0.9,
    "energy_consumption_w": 5.0,
    "carbon_footprint_kg": 0.204,
    "trl": 7,
    "cost_relative_to_si": 1.8
  },
  {
    "id": "cdse",
    "formula": "CdSe",
    "name": "CdSe (II-VI Compound)",
    "category": "II-VI Compound",
    "material_id": "mp-1070",
    "band_gap_ev": 0.5724,
    "density_g_cm3": 5.480139995990648,
    "formation_energy_ev_atom": -0.837606193671875,
    "is_stable": true,
    "chip_cost_eur": 1.1,
    "energy_consumption_w": 7.0,
    "carbon_footprint_kg": 0.379,
    "trl": 7,
    "cost_relative_to_si": 2.2
  },
  {
    "id": "cdte",
    "formula": "CdTe",
    "name": "CdTe (II-VI Compound)",
    "category": "II-VI Compound",
    "material_id": "mp-1226722",
    "band_gap_ev": 0.0,
    "density_g_cm3": 6.99492973506814,
    "formation_energy_ev_atom": -0.196671510000001,
    "is_stable": false,
    "chip_cost_eur": 1.25,
    "energy_consumption_w": 7.0,
    "carbon_footprint_kg": 0.455,
    "trl": 8,
    "cost_relative_to_si": 2.5
  },
  {
    "id": "mos2",
    "formula": "MoS2",
    "name": "MoS2 (2D Transition Metal Dichalcogenide)",
    "category": "2D Transition Metal Dichalcogenide",
    "material_id": "mp-1042086",
    "band_gap_ev": 0.0418,
    "density_g_cm3": 3.271134546853978,
    "formation_energy_ev_atom": -0.318641548541665,
    "is_stable": false,
    "chip_cost_eur": 2.5,
    "energy_consumption_w": 7.0,
    "carbon_footprint_kg": 0.269,
    "trl": 5,
    "cost_relative_to_si": 5.0
  },
  {
    "id": "ws2",
    "formula": "WS2",
    "name": "WS2 (2D Transition Metal Dichalcogenide)",
    "category": "2D Transition Metal Dichalcogenide",
    "material_id": "mp-1042100",
    "band_gap_ev": 0.0,
    "density_g_cm3": 5.694723998552027,
    "formation_energy_ev_atom": -0.130636825208332,
    "is_stable": false,
    "chip_cost_eur": 2.75,
    "energy_consumption_w": 7.0,
    "carbon_footprint_kg": 0.39,
    "trl": 4,
    "cost_relative_to_si": 5.5
  },
  {
    "id": "wse2",
    "formula": "WSe2",
    "name": "WSe2 (2D Transition Metal Dichalcogenide)",
    "category": "2D Transition Metal Dichalcogenide",
    "material_id": "mp-1023933",
    "band_gap_ev": 1.5241,
    "density_g_cm3": 4.94659192367267,
    "formation_energy_ev_atom": -0.595456302708332,
    "is_stable": false,
    "chip_cost_eur": 3.0,
    "energy_consumption_w": 5.0,
    "carbon_footprint_kg": 0.322,
    "trl": 4,
    "cost_relative_to_si": 6.0
  },
  {
    "id": "mose2",
    "formula": "MoSe2",
    "name": "MoSe2 (2D Transition Metal Dichalcogenide)",
    "category": "2D Transition Metal Dichalcogenide",
    "material_id": "mp-7581",
    "band_gap_ev": 1.361999999999999,
    "density_g_cm3": 6.437097955568167,
    "formation_energy_ev_atom": -0.749248649375,
    "is_stable": false,
    "chip_cost_eur": 2.75,
    "energy_consumption_w": 5.0,
    "carbon_footprint_kg": 0.397,
    "trl": 4,
    "cost_relative_to_si": 5.5
  }
]